#           x         3.219         3.219         3.219         3.219         3.219
#           y         0.205         0.185          0.16         0.135         0.115
#           z         0.005         0.005         0.005         0.005         0.005
#        Time
   0.00117647     -0.655876     -0.454417      -0.25347       0.14687      0.346253
   0.00252101       -1.2732       -1.0741     -0.875285     -0.478512     -0.280556
   0.00411001      -1.12416     -0.924498      -0.72518     -0.327572     -0.129285
   0.00587556       -1.0786     -0.878755     -0.679266     -0.281366     -0.082952
   0.00789334      -1.08978     -0.889863     -0.690304     -0.292278    -0.0938218
   0.00991112      -1.08626     -0.886424     -0.686942     -0.289063    -0.0906684
    0.0119289      -1.09836     -0.898534     -0.699063     -0.301191     -0.102794
    0.0139467      -1.09011     -0.890299     -0.690839     -0.292991    -0.0946061
    0.0159644      -1.09142     -0.891599      -0.69213     -0.294269    -0.0958802
    0.0179822      -1.08137     -0.881501     -0.681986     -0.284037    -0.0856097
         0.02      -1.08243     -0.882578     -0.683082     -0.285171    -0.0867596
    0.0222222      -1.03918     -0.839194     -0.639581      -0.24149    -0.0430157
    0.0247619      -1.04102     -0.840992     -0.641333     -0.243135    -0.0446026
    0.0278095      -1.04813     -0.848147     -0.648529     -0.250414    -0.0519216
    0.0308571      -1.05453     -0.854564     -0.654962     -0.256874    -0.0583923
    0.0339048       -1.0825     -0.882627      -0.68311     -0.285158    -0.0867288
    0.0369524      -1.08028     -0.880412     -0.680902      -0.28297    -0.0845534
         0.04      -1.08364     -0.883786     -0.684286     -0.286367    -0.0879539
    0.0433333      -1.09083      -0.89099     -0.691504     -0.293609    -0.0952052
    0.0466667      -1.12728     -0.927537     -0.728142     -0.330401     -0.132059
         0.05       -1.1268     -0.927078     -0.727698     -0.329977     -0.131642
    0.0533333      -1.12682     -0.927085     -0.727696     -0.329963     -0.131624
    0.0566667      -1.13149     -0.931762     -0.732382     -0.334663     -0.136329
         0.06      -1.13756     -0.937843     -0.738472     -0.340769     -0.142442
    0.0633333       -1.1434     -0.943701     -0.744345     -0.346666     -0.148347
    0.0666667      -1.14955      -0.94987      -0.75053     -0.352877      -0.15457
         0.07      -1.15192     -0.952198     -0.752823     -0.355113     -0.156783
    0.0733333      -1.12568     -0.925913     -0.726496     -0.328712      -0.13035
    0.0766667       -1.1264     -0.926604     -0.727154     -0.329321     -0.130943
         0.08      -1.15078     -0.951051     -0.751663     -0.353929     -0.155586
    0.0833333      -1.19277     -0.993208      -0.79397     -0.396493     -0.198259
    0.0866667      -1.20223       -1.0027     -0.803499     -0.406078     -0.207864
         0.09      -1.20698      -1.00748     -0.808291     -0.410895     -0.212689
    0.0933333       -1.2146      -1.01507     -0.815865     -0.418437     -0.220221
    0.0955556      -1.29335      -1.09424     -0.895411     -0.498618     -0.300655
    0.0977778      -1.21999      -1.02043     -0.821196      -0.42371     -0.225466
          0.1       -1.2261      -1.02666     -0.827537     -0.430252     -0.232093
       0.1025      -1.23763      -1.03819      -0.83906     -0.441767     -0.243606
        0.105      -1.28315      -1.08389     -0.884923     -0.487885     -0.289818
       0.1075       -1.2975      -1.09819     -0.899175     -0.502065     -0.303973
         0.11       -1.3148      -1.11563     -0.916754     -0.519874     -0.321876
       0.1125      -1.31358      -1.11441     -0.915533     -0.518655     -0.320661
        0.115      -1.30043      -1.10117       -0.9022     -0.505168     -0.307108
       0.1175      -1.25717      -1.05774     -0.858622     -0.461342     -0.263184
         0.12      -1.30479      -1.10553     -0.906574     -0.509552     -0.311495
       0.1225      -1.35577      -1.15673     -0.957957     -0.561263     -0.363343
        0.125      -1.37469      -1.17566      -0.97689     -0.580188     -0.382257
       0.1275      -1.39077      -1.19183     -0.993145     -0.596591     -0.398724
         0.13      -1.38574      -1.18677     -0.988062     -0.591471     -0.393587
       0.1325      -1.34563      -1.14645     -0.947553     -0.550638     -0.352622
        0.135      -1.28621      -1.08685     -0.887792     -0.490609      -0.29249
       0.1375      -1.36377      -1.16469     -0.965881     -0.569121     -0.371172
         0.14      -1.38962      -1.19058     -0.991824     -0.595139      -0.39722
       0.1425      -1.41206      -1.21312      -1.01444     -0.617899     -0.420034
        0.145      -1.40859      -1.20964      -1.01096     -0.614402     -0.416533
       0.1475      -1.37762      -1.17849     -0.979639     -0.582795     -0.384807
         0.15      -1.33151       -1.1322     -0.933199     -0.536105     -0.338021
        0.152      -1.43866      -1.23989      -1.04136     -0.645082     -0.447324
        0.154      -1.44755      -1.24873      -1.05018      -0.65384     -0.456065
        0.156      -1.44523      -1.24633      -1.04769     -0.651195     -0.453346
        0.158      -1.44421      -1.24533       -1.0467     -0.650229     -0.452393
         0.16      -1.45646      -1.25762      -1.05903      -0.66263     -0.464825
     0.162222      -1.40454       -1.2054      -1.00653     -0.609663     -0.411665
     0.164444      -1.41033       -1.2113      -1.01255     -0.615885      -0.41797
     0.166667      -1.44993      -1.25096      -1.05225      -0.65564     -0.457747
     0.168889      -1.48398      -1.28519      -1.08665     -0.690336     -0.492565
     0.171111      -1.49056      -1.29178      -1.09324     -0.696923     -0.499146
     0.173333      -1.48129      -1.28244      -1.08384     -0.687425     -0.489615
     0.175556      -1.49475      -1.29594      -1.09739      -0.70105     -0.503269
     0.177778      -1.48568       -1.2868      -1.08818     -0.691718     -0.493883
         0.18      -1.49926      -1.30046      -1.10191     -0.705564     -0.507782
     0.182222      -1.51181      -1.31296      -1.11436     -0.717941      -0.52012
     0.184444      -1.54776      -1.34908      -1.15064     -0.754473      -0.55676
     0.186667      -1.53584      -1.33711      -1.13862     -0.742394     -0.544655
     0.188889      -1.51688      -1.31804      -1.11945     -0.723037     -0.525221
     0.191111      -1.54579      -1.34704      -1.14854     -0.752289     -0.554542
     0.193333       -1.5775      -1.37882      -1.18037     -0.784188     -0.586463
     0.195556      -1.56266      -1.36398      -1.16553     -0.769354     -0.571635
     0.197778      -1.52002      -1.32114      -1.12251     -0.726055     -0.528227
          0.2      -1.56466      -1.36587      -1.16731      -0.77096     -0.573168
     0.202222      -1.54512      -1.34629       -1.1477     -0.751295      -0.55348
     0.204444      -1.52394      -1.32498      -1.12628      -0.72968     -0.531791
     0.206667      -1.53585      -1.33691      -1.13822     -0.741644     -0.543761
     0.208889      -1.58016      -1.38137      -1.18283     -0.786508     -0.588731
     0.211111      -1.54882      -1.34987      -1.15119     -0.754611     -0.556728
     0.213333      -1.52778      -1.32873      -1.12995     -0.733212     -0.535269
     0.215556      -1.54784      -1.34885      -1.15012     -0.753475     -0.555563
     0.217778      -1.56134       -1.3624      -1.16371     -0.767151     -0.569279
         0.22       -1.5493      -1.35023      -1.15142     -0.754635     -0.556664
     0.222222      -1.56927      -1.37026      -1.17152     -0.774843     -0.576923
     0.224444      -1.54206      -1.34294       -1.1441     -0.747262     -0.549274
     0.226667        -1.577      -1.37801      -1.17928     -0.782638      -0.58473
     0.228889      -1.57022      -1.37112       -1.1723     -0.775478     -0.577494
     0.231111      -1.54979      -1.35059      -1.15168     -0.754707     -0.556667
     0.233333      -1.55879       -1.3596      -1.16068     -0.763716     -0.565674
     0.235556      -1.54316      -1.34392      -1.14496     -0.747925     -0.549858
     0.237778      -1.53932      -1.33998      -1.14094     -0.743746     -0.545614
         0.24      -1.58582      -1.38663      -1.18772      -0.79076     -0.592722
     0.242222      -1.53366      -1.33425      -1.13514     -0.737838     -0.539663
     0.244444      -1.54102      -1.34161       -1.1425     -0.745192     -0.547014
     0.246667      -1.56137      -1.36201      -1.16294     -0.765702     -0.567551
     0.248889      -1.52113      -1.32153      -1.12225     -0.724667     -0.526378
     0.251111      -1.54508      -1.34558      -1.14638     -0.748927     -0.550688
     0.253333      -1.52771      -1.32808      -1.12877     -0.731138     -0.532831
     0.255556      -1.52405      -1.32437      -1.12501     -0.727296     -0.528948
     0.257778      -1.50649      -1.30671      -1.10726     -0.709395     -0.510993
     0.258889      -1.57144      -1.37211      -1.17307     -0.775858     -0.577709
         0.26      -1.54798      -1.34846      -1.14924     -0.751778     -0.553539
      0.26125      -1.53468        -1.335      -1.13564     -0.737916      -0.53957
     0.262692      -1.52217      -1.32234      -1.12284     -0.724885     -0.526442
     0.264266       -1.5189      -1.31904      -1.11952     -0.721518     -0.523055
     0.266014      -1.49606      -1.29607      -1.09642     -0.698214     -0.499672
     0.267762      -1.49835      -1.29836      -1.09873     -0.700533     -0.501993
      0.26951      -1.49815      -1.29812      -1.09844     -0.700175     -0.501607
     0.271259      -1.50391       -1.3039      -1.10424     -0.706016     -0.507467
     0.273007      -1.49253       -1.2924      -1.09263     -0.694212      -0.49558
     0.274755      -1.50024      -1.30013      -1.10038     -0.701995     -0.503379
     0.276503       -1.4991      -1.29896      -1.09917     -0.700737     -0.502099
     0.278252      -1.48417      -1.28388      -1.08396     -0.685284     -0.486544
         0.28      -1.49957      -1.29931      -1.09943      -0.70083     -0.502125
     0.281818      -1.49131      -1.29101      -1.09108     -0.692382     -0.493632
     0.283838      -1.44036      -1.23969      -1.03943      -0.64017     -0.441198
     0.285859      -1.44734      -1.24673      -1.04652     -0.647377     -0.448455
     0.287879        -1.472      -1.27145      -1.07129     -0.672227      -0.47333
     0.289899      -1.44523      -1.24446       -1.0441     -0.644674     -0.445633
     0.291919      -1.44702       -1.2462       -1.0458     -0.646306     -0.447237
     0.293939      -1.43469      -1.23373       -1.0332     -0.633494     -0.434336
      0.29596      -1.39843      -1.19722      -0.99646     -0.596374     -0.397068
      0.29798      -1.37432      -1.17295     -0.972039     -0.571683      -0.37226
          0.3      -1.35611      -1.15452     -0.953414     -0.552733     -0.353185
        0.302      -1.37139      -1.16984     -0.968783     -0.568169     -0.368643
        0.304      -1.35775      -1.15605      -0.95485     -0.554008     -0.354395
        0.306      -1.32123      -1.11925     -0.917787      -0.51649     -0.316685
        0.308      -1.32687      -1.12486     -0.923371     -0.522042     -0.322231
         0.31      -1.31158      -1.10937     -0.907707     -0.506065     -0.306124
        0.312      -1.30504      -1.10277     -0.901042     -0.499282     -0.299287
        0.314      -1.28121      -1.07871     -0.876786       -0.4747     -0.274577
        0.316      -1.26799      -1.06531     -0.863213     -0.460843     -0.260608
        0.318      -1.27317      -1.07048     -0.868372     -0.465967     -0.265709
         0.32       -1.2542      -1.05124     -0.848892     -0.446092     -0.245682
        0.322      -1.23273      -1.02956     -0.827012     -0.423864     -0.223306
        0.324       -1.2316      -1.02836     -0.825755     -0.422501     -0.221897
        0.326      -1.21406      -1.01054     -0.807682     -0.404002      -0.20323
        0.328      -1.23024      -1.02674     -0.823878     -0.420192     -0.219412
         0.33      -1.21137      -1.00762     -0.804539     -0.400471     -0.199536
        0.332      -1.18331      -0.97931     -0.775999     -0.371554      -0.17047
        0.334      -1.17579     -0.971629     -0.768172     -0.363478      -0.16229
        0.336      -1.15212     -0.947691     -0.743987      -0.33886     -0.137488
        0.338      -1.15451     -0.949956      -0.74614     -0.340831      -0.13939
         0.34      -1.13868     -0.933853     -0.729781     -0.324031     -0.122412
        0.342      -1.11734     -0.912239     -0.707913     -0.301717    -0.0999103
        0.344      -1.14459     -0.939583     -0.735346     -0.329315      -0.12758
     0.345778      -1.14763     -0.942577     -0.738288     -0.332143     -0.130351
     0.347556       -1.1018     -0.896205     -0.691426     -0.284462    -0.0823427
     0.349333      -1.09549     -0.889742     -0.684819     -0.277611    -0.0753926
     0.351111      -1.06809     -0.861965     -0.656698     -0.248896    -0.0464298
     0.352889      -1.06785     -0.861603     -0.656215     -0.248193    -0.0456365
     0.354667      -1.10327     -0.897166     -0.691915     -0.284129    -0.0816691
     0.356444       -1.0515     -0.844788     -0.638976     -0.230239    -0.0273902
     0.358222       -1.0376     -0.830634     -0.624593     -0.215454     -0.012438
         0.36      -1.08376      -0.87707     -0.671269     -0.262532    -0.0596798
     0.361818      -1.03156     -0.824223     -0.617833     -0.208084   -0.00481196
     0.363636      -1.00503     -0.797337     -0.590619     -0.180324     0.0231654
     0.365455      -1.04668     -0.839204     -0.632686     -0.222714    -0.0193503
     0.367273      -1.00205     -0.793931     -0.586814     -0.175807     0.0279797
     0.369091     -0.989723     -0.781359     -0.574018     -0.162632     0.0413113
     0.370909      -1.01484     -0.806526     -0.599228     -0.187907     0.0160174
     0.372727     -0.961554     -0.752426     -0.544377     -0.131764     0.0726863
     0.374545     -0.980209     -0.771158     -0.563175     -0.150666     0.0537468
     0.376364     -0.963424     -0.753966     -0.545607     -0.132462     0.0722046
     0.378182     -0.908808     -0.698544     -0.489439    -0.0749915       0.13022
         0.38     -0.941096     -0.731021      -0.52209      -0.10794     0.0971522
     0.381818     -0.896099       -0.6853       -0.4757    -0.0604041      0.145153
     0.383636     -0.874714     -0.663369     -0.453269    -0.0371173      0.168795
     0.385455     -0.884628     -0.673243     -0.463091    -0.0468216      0.159145
     0.387273      -0.85101     -0.638952     -0.428181    -0.0108362      0.195578
     0.389091     -0.856261     -0.644021     -0.433085    -0.0154723      0.191048
     0.390909     -0.824817       -0.6119      -0.40033     0.0184012      0.225392
     0.392727     -0.795768     -0.582164     -0.369952     0.0498929       0.25734
     0.394545     -0.839917     -0.626545     -0.414544    0.00495011       0.21226
     0.396364      -0.77246     -0.557984     -0.344966      0.076268      0.284294
     0.398182     -0.734938     -0.519647     -0.305863      0.116719      0.325303
          0.4      -0.76278     -0.547594     -0.333902     0.0885431      0.297086
     0.401818     -0.726064     -0.510014     -0.295518      0.128311       0.33742
     0.403636     -0.697928     -0.481093     -0.265871      0.159214      0.368844
     0.405455     -0.701125     -0.483976     -0.268452      0.157186      0.367058
     0.407273     -0.664929     -0.446862     -0.230477       0.19667      0.407165
     0.409091     -0.680613     -0.462468     -0.246008      0.181271      0.391828
     0.410909     -0.628725     -0.409394     -0.191828      0.237385      0.448745
     0.412727     -0.597156     -0.376809     -0.158292      0.272591      0.484655
     0.414545     -0.647849     -0.427657     -0.209269      0.221434      0.433437
     0.416364     -0.599945     -0.378604     -0.159145      0.273403      0.486165
     0.418182     -0.544412     -0.321662     -0.100884      0.333989      0.547728
         0.42     -0.571712     -0.348914     -0.128075       0.30694      0.520752
     0.421818     -0.521251     -0.297044     -0.074888      0.362427      0.577194
     0.423636     -0.535575     -0.311035    -0.0885546       0.34936      0.564393
     0.425455     -0.485571     -0.259674    -0.0359178      0.404251      0.620229
     0.427273     -0.439007      -0.21164     0.0135007      0.456094      0.673082
     0.429091     -0.500901     -0.273818    -0.0489218      0.393304      0.610168
     0.430909       -0.4269      -0.19794      0.028713      0.474034        0.6922
     0.432727     -0.370175     -0.139365     0.0890409      0.537458      0.756917
     0.434545     -0.422407     -0.191753     0.0365242      0.484773      0.704198
     0.436364     -0.344489      -0.11164      0.118707      0.570624      0.791585
     0.438182     -0.365584     -0.132158     0.0987525      0.551705      0.773127
         0.44     -0.329138    -0.0941022      0.138345      0.594051      0.816635
     0.441818     -0.257444    -0.0201751      0.214381      0.673831         0.898
     0.443636     -0.308893    -0.0718709      0.162492      0.621683      0.845776
     0.445455     -0.229769    0.00978131      0.246526      0.709937      0.935823
     0.447273     -0.175406     0.0665998      0.305688      0.773305       1.00097
     0.449091     -0.232837    0.00909433      0.248162      0.715889      0.943666
     0.450909     -0.130886      0.114367      0.356576      0.829856       1.05997
     0.452727     -0.150672     0.0955625      0.338756      0.813913       1.04486
     0.454545     -0.147461      0.100289       0.34495      0.822796       1.05492
     0.456364    -0.0353608      0.216396      0.464867      0.949531       1.18456
     0.458182     -0.103378      0.147945       0.39608      0.880323       1.11524
         0.46    -0.0468266      0.207296      0.458123      0.947263        1.1843
     0.461818     0.0536902      0.312082      0.566992       1.06351       1.30372
     0.463636    -0.0128628      0.245476      0.500426        0.9972       1.23759
     0.465273     0.0175477      0.277772       0.53456       1.03473       1.27658
     0.466909      0.125213      0.390215      0.651578       1.16005       1.40551
     0.468545     0.0471388      0.311997      0.573333       1.08197       1.32756
     0.470182      0.156522      0.426016      0.691813       1.20862       1.45776
     0.471818       0.22885      0.502327      0.771986       1.29585       1.54807
     0.473455      0.122082      0.394478      0.663248       1.18584       1.43763
     0.475091      0.216773      0.493987      0.767435       1.29867       1.55424
     0.476727      0.302636      0.584508      0.862493       1.40209       1.66133
     0.478364       0.18105      0.461857      0.738975       1.27741       1.53633
         0.48      0.314425      0.601855      0.885425       1.43574       1.69982
     0.481667      0.372655      0.664537      0.952504        1.5111        1.7789
     0.483333         0.234      0.524241      0.810852       1.36756       1.63475
        0.485      0.453131      0.753318       1.04959       1.62407       1.89903
     0.486667       0.42242      0.724576       1.02293       1.60172       1.87874
     0.488333       0.31135      0.612964      0.911078       1.49012       1.76752
         0.49      0.565546      0.879618       1.18986       1.79127       2.07849
     0.491667      0.482876      0.797741       1.10906       1.71324       2.00194
     0.493333      0.413454      0.729745       1.04273       1.65072       1.94141
        0.495      0.672662       1.00289       1.32956       1.96312       2.26515
     0.496667      0.541443      0.870468       1.19638       1.82964       2.13198
     0.498333      0.582745      0.917228       1.24877       1.89321       2.20073
          0.5      0.796925       1.14576       1.49158        2.1633       2.48319
     0.501667      0.602426      0.948215       1.29162       1.96023       2.27929
     0.503333      0.712452       1.06777       1.42086       2.10846       2.43634
        0.505      0.908945       1.27827       1.64556       2.36096       2.70165
     0.506667      0.720849       1.08729       1.45242       2.16553       2.50598
     0.508333      0.906873       1.28845         1.669       2.41242       2.76691
         0.51      0.956998       1.34868        1.7399       2.50536       2.87049
     0.511667      0.789801       1.18023       1.57101       2.33792       2.70471
     0.513333        1.0445       1.45552       1.86743       2.67627       3.06265
        0.515       1.01264       1.42948       1.84817       2.67273       3.06744
     0.516667       0.96768       1.38907       1.81318        2.6507       3.05242
     0.518333       1.21326       1.65857       2.10763       2.99587       3.42182
         0.52       1.11267       1.56181       2.01606       2.91818       3.35225
     0.521667       1.10375       1.56121       2.02508       2.94944       3.39526
     0.523333       1.36145       1.84696       2.34055       3.32689       3.80314
        0.525       1.19415       1.67822       2.17215        3.1646       3.64612
     0.526667       1.26322       1.76381       2.27621       3.31002       3.81304
     0.528333       1.44236       1.97033       2.51271       3.61208        4.1487
         0.53       1.21876       1.74378       2.28553       3.39105       3.93402
     0.531667       1.42861       1.98144       2.55411       3.72873       4.30775
     0.533333       1.47856       2.05185        2.6486       3.88114       4.49229
        0.535        1.3129        1.8855       2.48449       3.73133       4.35409
     0.536667       1.56515       2.17482       2.81575       4.15893       4.83341
     0.538333       1.51369       2.13813       2.79869       4.19595       4.90357
         0.54       1.38253       2.01149       2.68073       4.10948       4.83952
     0.541667       1.64117       2.31586       3.03808        4.5941       5.39544
     0.543333       1.49467       2.17403       2.90669       4.50488       5.33772
        0.545       1.46202       2.15456       2.90651       4.56546       5.43947
     0.546667       1.73629       2.48098       3.29561       5.11291       6.08063
     0.548333       1.43625       2.17081        2.9795       4.81349       5.80633
         0.55       1.50462       2.27108       3.12051       5.07117       6.14127
     0.551667       1.65122       2.46321       3.36995       5.48728       6.66701
     0.553333       1.28885       2.08196       2.97642       5.09911       6.30813
        0.555       1.52371       2.36943       3.33144       5.64613       6.98603
     0.556667       1.49961       2.36901       3.36825       5.81757       7.26783
     0.558333       1.14015       1.98712       2.97188       5.43652       6.93488
         0.56       1.41041       2.32333       3.39523       6.12336       7.81258
     0.561667       1.20015        2.1101       3.19074       6.00739       7.80478
     0.563333      0.993236       1.89138       2.96977       5.84287       7.73392
        0.565       1.23379       2.19941        3.3729        6.5716       8.71887
     0.566667      0.812152        1.7313       2.86203       6.03495       8.25086
     0.568148      0.641394       1.53141       2.63244       5.77675       8.02634
      0.56963      0.956313       1.93959       3.17049       6.76242       9.39287
     0.571111      0.567896       1.49068       2.65754       6.16328       8.85072
     0.572593      0.294184       1.17609       2.29946       5.75459        8.5235
     0.574074      0.570959        1.5288       2.76133       6.61515       9.79455
     0.575556      0.367908       1.27661       2.45046       6.18296       9.42082
     0.577037     -0.197457      0.598431       1.63492       5.01095       8.14363
     0.578519      0.181408       1.05813       2.20781       5.98347       9.59148
         0.58      0.203726       1.07756       2.22454       5.95858        9.6953
     0.581429     -0.327919      0.388075       1.32101       4.26253       7.46818
     0.582857     -0.407608      0.294533       1.22662       4.15047         7.559
     0.584176     0.0808052       0.86739       1.92032       5.00536       8.54232
     0.585393     -0.107802      0.549691       1.42239        3.4677       5.80588
     0.586517     -0.467344     0.0435007      0.750582       1.94941       3.26371
     0.587554     -0.375722      0.107766      0.840179       1.72214       2.23491
     0.588511    -0.0680675      0.438995       1.31273       2.06685       1.84192
     0.589395     0.0364093      0.485177       1.41305        1.2393       -1.2949
     0.590211      0.255331      0.708238       1.81148      0.642477      -4.58559
     0.590964      0.464645      0.926054       2.21227     -0.461458      -8.46056
     0.591717      0.501479      0.932076       2.34447      -2.70751      -13.4779
      0.59247      0.486721      0.845913       2.29554      -6.17288      -23.0655
     0.593154      0.607489       0.93564       2.45422      -7.34398      -26.0958
     0.593839      0.989857       1.42386       3.18977      -8.21645       -30.566
     0.594524        1.1168       1.57802       3.43621       -8.9925      -32.0016
     0.595208       1.22513       1.70025       3.55886      -9.40425      -31.0136
     0.595893       1.16355       1.61517       3.33196      -9.68905       -25.002
     0.596577      0.230618      0.441892       1.66651      -13.0223      -26.1433
     0.597262     -0.946362     -0.984687      -0.35462      -15.8355      -22.4388
     0.597809      -1.03729      -1.04553     -0.143034      -11.7781      -6.93657
     0.598357      0.141628      0.812291       2.79939      -7.68255      0.540085
     0.598905      0.630478       1.69721       3.98136        4.3699       23.4831
     0.599452      0.194577       1.18219       3.04538       15.9519       44.2649
          0.6     -0.158034       0.57959       2.01444       29.2541       56.3612
     0.600606     -0.278858    -0.0171577      0.701503       30.9226       58.4293
     0.601212      -2.27736      -3.19925      -2.77513       35.6063       54.7057
     0.601818      -3.10103      -4.29027      -2.73241       39.6671       42.7328
     0.602424      -4.05264        -5.557      -2.68774       42.9329       21.4376
      0.60303      -3.80864      -5.13073     0.0239443       44.4614     -0.696386
     0.603659      -4.03073      -5.20779        1.3548       34.4054      -20.5269
     0.604287      -3.90909      -4.24056       4.75648         34.99      -26.5288
     0.604916      -4.66961      -4.07681       6.49525       33.3704       -26.825
     0.605544      -4.09061      -3.67661       7.20863       29.4582      -31.5995
     0.606173      -4.10855      -1.47984       10.2747       27.2988      -33.6791
     0.606801       -4.7108      0.247621       13.5458       21.5507      -36.3369
      0.60743      -3.96558       4.11773       21.5709       8.12853      -39.6528
     0.608058      -7.83366     -0.712197       18.3359        6.9764      -35.1113
     0.608687      -5.19238       2.72457       19.2635       4.87024      -32.6901
     0.609315       -3.4844       6.49278       23.7716       2.55864      -30.6746
     0.609944      -2.50594       7.80225        25.051     -0.515284      -28.8235
     0.610572      -3.66127        5.8971       23.1098      -5.04393      -27.8941
     0.611201      -3.38292       5.87724       22.4238      -7.41791      -25.3821
     0.611829      -2.29274       7.56936       22.5318      -8.47895      -22.5638
     0.612458     -0.320413       9.86093       22.9558      -8.44932      -20.7282
     0.613086       6.14931       20.0898       27.0539       -12.408      -23.9763
     0.613715       7.77438       24.7025       33.8705      -14.0219      -26.5796
     0.614343        11.171       27.5534        38.037      -15.1269      -30.4022
     0.614972       12.7427       29.6092       41.7376      -16.3968      -33.7832
       0.6156       13.6925       31.0211       43.0117      -17.6651      -34.5282
     0.616229       13.9079       31.4818       42.8452      -18.6657      -33.4102
     0.616857       13.3521       31.3048       42.2261      -20.2763      -30.7383
     0.617486       13.5991       31.2457        41.207      -21.4292      -25.5542
     0.618114       14.0971       31.5071       40.6661      -21.9354      -17.8199
     0.618743       14.0656       30.9784       38.9974      -22.3692      -8.49973
     0.619371       11.1651       27.2744       33.8518      -23.5479       1.24825
         0.62       10.9545       25.5161       30.3826      -21.6679       15.0228
     0.620645       12.3543       25.5464       27.8709      -19.0703       31.4047
     0.621313         13.99       26.8903       27.9547      -18.1778       48.2931
     0.621957        21.445        30.704       24.7552      -19.5918       60.8489
     0.622601       31.7428       38.1052      -3.71975      -16.5213       77.3832
     0.623246       34.2665       49.6599      -10.8037      -14.3226       92.9057
      0.62389       37.0618       55.2961       -14.274      -10.2707       109.043
     0.624535       39.7345       57.5233      -12.4464      -5.75973       122.726
     0.625179        43.855       61.6177      -11.2917     -0.729642       135.628