/*--------------------------------*- C++ -*----------------------------------*\
| =========                 |                                                 |
| \\      /  F ield         | OpenFOAM: The Open Source CFD Toolbox           |
|  \\    /   O peration     | Version:  2.1.0                                 |
|   \\  /    A nd           | Web:      www.OpenFOAM.org                      |
|    \\/     M anipulation  |                                                 |
\*---------------------------------------------------------------------------*/
FoamFile
{
    version     2.0;
    format      ascii;
    class       polyBoundaryMesh;
    location    "constant/polyMesh";
    object      boundary;
}
// * * * * * * * * * * * * * * * * * * * * * * * * * * * * * * * * * * * * * //

8
(
    BWall
    {
        type            patch;
        nFaces          0;
        startFace       42093;
    }
    Seabed
    {
        type            patch;
        nFaces          240;
        startFace       42093;
    }
    Top
    {
        type            patch;
        nFaces          240;
        startFace       42333;
    }
    Inlet
    {
        type            patch;
        nFaces          90;
        startFace       42573;
    }
    FWall
    {
        type            patch;
        nFaces          42466;
        startFace       42663;
    }
    Outlet
    {
        type            patch;
        nFaces          90;
        startFace       85129;
    }
    defaultFaces
    {
        type            patch;
        nFaces          0;
        startFace       85219;
    }
    Cylinder_patch0
    {
        type            wall;
        nFaces          62;
        startFace       85219;
    }
)

// ************************************************************************* //
